Tag,ChemicalName,SMILES,MW (g/mol),logP,MR,carboxy,carboxylate,hydroxy,ether,ester,ketone,epoxy,amide,cyano,amine,ammonium,phenyl,methyl,methylene,methyne,quat_carbon,vinyl,asetylene,siloxane
HEMA,hema,CC(=C)C(=O)OCCO,130.143,0.09800000000000003,32.85879999999999,0.0,0.0,7.68385545131125,0.0,7.68385545131125,0.0,0.0,0.0,0.0,0.0,0.0,0.0,7.68385545131125,15.3677109026225,0.0,0.0,7.68385545131125,0.0,0.0