Tag,ChemicalName,SMILES,MW (g/mol),logP,carboxyl (mmol/g),carboxylate (mmol/g),hydroxyl (mmol/g),ether (mmol/g),ester (mmol/g),epoxy (mmol/g),amide (mmol/g),cyano (mmol/g),amine (mmol/g),ammonium (mmol/g),phenyl (mmol/g),methyl (mmol/g),methylene (mmol/g),methyne (mmol/g),quat_carbon (mmol/g),vinyl (mmol/g),asetylene (mmol/g),siloxane (mmol/g)
MM,CC(=C)C(=O)OC,CC(=C)C(=O)OC,100.11699999999999,0.7355,0.0,0.0,0.0,0.0,9.988313673002589,0.0,0.0,0.0,0.0,0.0,0.0,19.976627346005177,0.0,0.0,0.0,9.988313673002589,0.0,0.0