Tag,ChemicalName,SMILES,MW (g/mol),logP,carboxyl (mmol/g),carboxylate (mmol/g),hydroxyl (mmol/g),ether (mmol/g),ester (mmol/g),epoxy (mmol/g),amide (mmol/g),cyano (mmol/g),amine (mmol/g),ammonium (mmol/g),phenyl (mmol/g),methyl (mmol/g),methylene (mmol/g),methyne (mmol/g),quat_carbon (mmol/g),vinyl (mmol/g),asetylene (mmol/g),siloxane (mmol/g)
MMA,methyl methacrylate,CC(=C)C(=O)OC,100.117,0.7355,0.0,0.0,0.0,0.0,9.988313673002589,0.0,0.0,0.0,0.0,0.0,0.0,19.976627346005177,0.0,0.0,0.0,9.988313673002589,0.0,0.0
BMA,butyl methacrylate,CCCCOC(=O)C(=C)C,142.19799999999998,1.9058,0.0,0.0,0.0,0.0,7.0324477137512496,0.0,0.0,0.0,0.0,0.0,0.0,14.064895427502499,21.09734314125375,0.0,0.0,7.0324477137512496,0.0,0.0
IBXMA,iBMA,CC(=C)C(=O)OC1CC2CCC1(C2(C)C)C,222.32799999999995,3.320500000000002,0.0,0.0,0.0,0.0,4.497859019106906,0.0,0.0,0.0,0.0,0.0,0.0,17.991436076427625,13.493577057320719,8.995718038213813,8.995718038213813,4.497859019106906,0.0,0.0
2EHMA,2 ethylhexyl methacrylate,CCCCC(CC)COC(=O)C(=C)C,198.30599999999995,3.3221000000000016,0.0,0.0,0.0,0.0,5.042711768680727,0.0,0.0,0.0,0.0,0.0,0.0,15.12813530604218,25.213558843403636,5.042711768680727,0.0,5.042711768680727,0.0,0.0