Tag,ChemicalName,SMILES,MW (g/mol),logP,carboxyl (mmol/g),carboxylate (mmol/g),hydroxyl (mmol/g),ether (mmol/g),ester (mmol/g),epoxy (mmol/g),amide (mmol/g),cyano (mmol/g),amine (mmol/g),ammonium (mmol/g),phenyl (mmol/g),methyl (mmol/g),methylene (mmol/g),methyne (mmol/g),quat_carbon (mmol/g),vinyl (mmol/g),asetylene (mmol/g),siloxane (mmol/g)
HPMA,HPMA,CC(COC(=O)C(=C)C)O,144.17,0.4865,0.0,0.0,6.9362558091142406,0.0,6.9362558091142406,0.0,0.0,0.0,0.0,0.0,0.0,13.872511618228481,6.9362558091142406,6.9362558091142406,0.0,6.9362558091142406,0.0,0.0
HEMA,HEMA,CC(=C)C(=O)OCCO,130.143,0.09800000000000003,0.0,0.0,7.68385545131125,0.0,7.68385545131125,0.0,0.0,0.0,0.0,0.0,0.0,7.68385545131125,15.3677109026225,0.0,0.0,7.68385545131125,0.0,0.0
AA,acrylic acid,C=CC(=O)O,72.06299999999999,0.25699999999999995,13.876746735495333,0.0,0.0,0.0,0.0,0.0,0.0,0.0,0.0,0.0,0.0,0.0,0.0,0.0,0.0,13.876746735495333,0.0,0.0