Tag,ChemicalName,SMILES,MW (g/mol),logP,carboxyl (mmol/g),carboxylate (mmol/g),hydroxyl (mmol/g),ether (mmol/g),ester (mmol/g),epoxy (mmol/g),amide (mmol/g),cyano (mmol/g),amine (mmol/g),ammonium (mmol/g),phenyl (mmol/g),methyl (mmol/g),methylene (mmol/g),methyne (mmol/g),quat_carbon (mmol/g),vinyl (mmol/g),asetylene (mmol/g),siloxane (mmol/g)
CHCl3,chloroform,C(Cl)(Cl)Cl,119.37800000000001,1.9864,0.0,0.0,0.0,0.0,0.0,0.0,0.0,0.0,0.0,0.0,0.0,0.0,0.0,8.376752835530834,0.0,0.0,0.0,0.0
PGME,propylene glycol methyl ether,CC(COC)O,90.12199999999999,0.013600000000000001,0.0,0.0,11.096069772086729,11.096069772086729,0.0,0.0,0.0,0.0,0.0,0.0,0.0,22.192139544173457,11.096069772086729,11.096069772086729,0.0,0.0,0.0,0.0
nBuOH,butanol,CCCCO,74.12299999999999,0.7787999999999999,0.0,0.0,13.49108913562592,0.0,0.0,0.0,0.0,0.0,0.0,0.0,0.0,13.49108913562592,40.47326740687776,0.0,0.0,0.0,0.0,0.0
iBuOH,isobutanol,CC(C)CO,74.12299999999999,0.6347,0.0,0.0,13.49108913562592,0.0,0.0,0.0,0.0,0.0,0.0,0.0,0.0,26.98217827125184,13.49108913562592,13.49108913562592,0.0,0.0,0.0,0.0
IPA,isopropanol,CC(C)O,60.096000000000004,0.38710000000000006,0.0,0.0,16.64004259850905,0.0,0.0,0.0,0.0,0.0,0.0,0.0,0.0,33.2800851970181,0.0,16.64004259850905,0.0,0.0,0.0,0.0
EMA,ethyl methacrylate,*CC(*)(C)C(=O)OCC,114.14399999999998,1.2449999999999999,0.0,0.0,0.0,0.0,8.760863470703674,0.0,0.0,0.0,0.0,0.0,0.0,17.521726941407348,17.521726941407348,0.0,8.760863470703674,0.0,0.0,0.0
IBMA,isobutyl methacrylate,*CC(*)(C)C(=O)OCC(C)C,142.19799999999998,1.8811,0.0,0.0,0.0,0.0,7.0324477137512496,0.0,0.0,0.0,0.0,0.0,0.0,21.09734314125375,14.064895427502499,7.0324477137512496,7.0324477137512496,0.0,0.0,0.0
2EHA,2 ethylhexyl acrylate,*CC(*)C(=O)OCC(CC)CCCC,184.27899999999994,3.051400000000002,0.0,0.0,0.0,0.0,5.426554300815613,0.0,0.0,0.0,0.0,0.0,0.0,10.853108601631225,32.559325804893675,10.853108601631225,0.0,0.0,0.0,0.0
GMA,gma,*CC(*)(C)C(=O)OCC1CO1,142.15399999999997,0.6239,0.0,0.0,0.0,0.0,7.0346244214021425,7.0346244214021425,0.0,0.0,0.0,0.0,0.0,7.0346244214021425,21.103873264206428,7.0346244214021425,7.0346244214021425,0.0,0.0,0.0
AA_anion,acrylic acid,*CC(*)C(=O)[O-],71.05499999999999,-0.9583000000000002,0.0,14.073604953908946,0.0,0.0,0.0,0.0,0.0,0.0,0.0,0.0,0.0,0.0,14.073604953908946,14.073604953908946,0.0,0.0,0.0,0.0
MAA_anion,methacrylic acid,*CC(*)(C)C(=O)[O-],85.08199999999998,-0.5682,0.0,11.753367339742839,0.0,0.0,0.0,0.0,0.0,0.0,0.0,0.0,0.0,11.753367339742839,11.753367339742839,0.0,11.753367339742839,0.0,0.0,0.0
HEMA,hema,*CC(*)(C)C(=O)OCCO,130.143,0.21739999999999998,0.0,0.0,7.68385545131125,0.0,7.68385545131125,0.0,0.0,0.0,0.0,0.0,0.0,7.68385545131125,23.05156635393375,0.0,7.68385545131125,0.0,0.0,0.0
VMA,behenyl methacrylate,*CC(*)(C)C(=O)OCCCCCCCCCCCCCCCCCCCCCC,394.68400000000025,9.047000000000002,0.0,0.0,0.0,0.0,2.5336725076263527,0.0,0.0,0.0,0.0,0.0,0.0,5.067345015252705,55.74079516777976,0.0,2.5336725076263527,0.0,0.0,0.0
FM-0721,C=C(C)C(=O)OCCCO[Si](C)(C)OCO[Si](C)(C)OCO[Si](C)(C)OCO[Si](C)(C)OCO[Si](C)(C)OCO[Si](C)(C)OCO[Si](C)(C)OCO[Si](C)(C)OCO[Si](C)(C)OCO[Si](C)(C)OCO[Si](C)(C)OCO[Si](C)(C)OCO[Si](C)(C)OCO[Si](C)(C)OCO[Si](C)(C)OCO[Si](C)(C)OCO[Si](C)(C)OCO[Si](C)(C)OCO[Si](C)(C)OCO[Si](C)(C)OCO[Si](C)(C)OCO[Si](C)(C)OCO[Si](C)(C)OCO[Si](C)(C)OCO[Si](C)(C)OCO[Si](C)(C)OCO[Si](C)(C)OCO[Si](C)(C)OCO[Si](C)(C)OCO[Si](C)(C)OCO[Si](C)(C)OCO[Si](C)(C)OCO[Si](C)(C)OCO[Si](C)(C)OCO[Si](C)(C)OCO[Si](C)(C)OCO[Si](C)(C)OCO[Si](C)(C)OCO[Si](C)(C)OCO[Si](C)(C)OCO[Si](C)(C)OCO[Si](C)(C)OCO[Si](C)(C)OCO[Si](C)(C)OCO[Si](C)(C)OCO[Si](C)(C)OCO[Si](C)(C)OCCCC,*CC(*)(C)C(=O)OCCCO[Si](C)(C)OCO[Si](C)(C)OCO[Si](C)(C)OCO[Si](C)(C)OCO[Si](C)(C)OCO[Si](C)(C)OCO[Si](C)(C)OCO[Si](C)(C)OCO[Si](C)(C)OCO[Si](C)(C)OCO[Si](C)(C)OCO[Si](C)(C)OCO[Si](C)(C)OCO[Si](C)(C)OCO[Si](C)(C)OCO[Si](C)(C)OCO[Si](C)(C)OCO[Si](C)(C)OCO[Si](C)(C)OCO[Si](C)(C)OCO[Si](C)(C)OCO[Si](C)(C)OCO[Si](C)(C)OCO[Si](C)(C)OCO[Si](C)(C)OCO[Si](C)(C)OCO[Si](C)(C)OCO[Si](C)(C)OCO[Si](C)(C)OCO[Si](C)(C)OCO[Si](C)(C)OCO[Si](C)(C)OCO[Si](C)(C)OCO[Si](C)(C)OCO[Si](C)(C)OCO[Si](C)(C)OCO[Si](C)(C)OCO[Si](C)(C)OCO[Si](C)(C)OCO[Si](C)(C)OCO[Si](C)(C)OCO[Si](C)(C)OCO[Si](C)(C)OCO[Si](C)(C)OCO[Si](C)(C)OCO[Si](C)(C)OCO[Si](C)(C)OCCCC,5066.7589999999955,35.005300000000034,0.0,0.0,0.0,0.0,0.19736482433839875,0.0,0.0,0.0,0.0,0.0,0.0,18.94702313648628,10.460335689935134,0.0,0.19736482433839875,0.0,0.0,9.276146743904741
FM-0711,C=C(C)C(=O)OCCCO[Si](C)(C)OCO[Si](C)(C)OCO[Si](C)(C)OCO[Si](C)(C)OCO[Si](C)(C)OCO[Si](C)(C)O[Si](C)(C)O[Si](C)(C)O[Si](C)(C)O[Si](C)(C)OCCCC,*CC(*)(C)C(=O)OCCCO[Si](C)(C)OCO[Si](C)(C)OCO[Si](C)(C)OCO[Si](C)(C)OCO[Si](C)(C)OCO[Si](C)(C)O[Si](C)(C)O[Si](C)(C)O[Si](C)(C)O[Si](C)(C)OCCCC,1091.958,9.4864,0.0,0.0,0.0,0.0,0.9157861382946962,0.0,0.0,0.0,0.0,0.0,0.0,20.147295042483318,10.989433659536354,0.0,0.9157861382946962,0.0,0.0,9.157861382946962