Tag,ChemicalName,SMILES,MW (g/mol),logP,carboxyl (mmol/g),carboxylate (mmol/g),hydroxyl (mmol/g),ether (mmol/g),ester (mmol/g),epoxy (mmol/g),amide (mmol/g),cyano (mmol/g),amine (mmol/g),ammonium (mmol/g),phenyl (mmol/g),methyl (mmol/g),methylene (mmol/g),methyne (mmol/g),quat_carbon (mmol/g),vinyl (mmol/g),asetylene (mmol/g),siloxane (mmol/g)
iBA,isobutyl acrylate,CC(C)COC(=O)C=C,128.17099999999996,1.3716000000000002,0.0,0.0,0.0,0.0,7.80207691287421,0.0,0.0,0.0,0.0,0.0,0.0,15.60415382574842,7.80207691287421,7.80207691287421,0.0,7.80207691287421,0.0,0.0
GMA,gma,CC(=C)C(=O)OCC1CO1,142.154,0.5045000000000001,0.0,0.0,0.0,0.0,7.034624421402142,7.034624421402142,0.0,0.0,0.0,0.0,0.0,7.034624421402142,14.069248842804283,7.034624421402142,0.0,7.034624421402142,0.0,0.0
DM,dimethylaminoethyl methacrylate,CC(=C)C(=O)OCCN(C)C,157.213,0.6673,0.0,0.0,0.0,0.0,6.360797135096971,0.0,0.0,0.0,6.360797135096971,0.0,0.0,19.082391405290913,12.721594270193942,0.0,0.0,6.360797135096971,0.0,0.0
SMA,stearyl methacrylate,CCCCCCCCCCCCCCCCCCOC(=O)C(=C)C,338.576,7.3672000000000075,0.0,0.0,0.0,0.0,2.9535466187798307,0.0,0.0,0.0,0.0,0.0,0.0,5.907093237559661,50.21029251925712,0.0,0.0,2.9535466187798307,0.0,0.0
EMA,ethyl methacrylate,CCOC(=O)C(=C)C,114.14399999999999,1.1256000000000002,0.0,0.0,0.0,0.0,8.760863470703674,0.0,0.0,0.0,0.0,0.0,0.0,17.521726941407348,8.760863470703674,0.0,0.0,8.760863470703674,0.0,0.0