Tag,ChemicalName,SMILES,MW (g/mol),logP,MR,carboxy,carboxylate,hydroxy,ether,ester,ketone,epoxy,amide,cyano,amine,ammonium,phenyl,methyl,methylene,methyne,quat_carbon,vinyl,asetylene,siloxane
Ensitrelvir,Ensitrelvir,CN1C=C2C=C(C(=CC2=N1)Cl)NC3=NC(=O)N(C(=O)N3CC4=CC(=C(C=C4F)F)F)CC5=NN(C=N5)C,531.8860000000002,2.3311,127.28670000000004,0.0,0.0,0.0,0.0,0.0,0.0,0.0,0.0,0.0,1.880102127147546,0.0,3.760204254295092,3.760204254295092,3.760204254295092,0.0,0.0,0.0,0.0,0.0
Oseltamivir,Oseltamivir,Oseltamivir,312.4100000000001,1.2854000000000008,84.15610000000004,0.0,0.0,0.0,3.2009218654972624,3.2009218654972624,0.0,0.0,3.2009218654972624,0.0,3.2009218654972624,0.0,0.0,12.80368746198905,12.80368746198905,12.80368746198905,0.0,3.2009218654972624,0.0,0.0
methyl methacrylate,methyl methacrylate,*CC(*)(C)C(=O)OC,100.11699999999998,0.8549,25.18999999999999,0.0,0.0,0.0,0.0,9.988313673002589,0.0,0.0,0.0,0.0,0.0,0.0,0.0,19.976627346005177,9.988313673002589,0.0,9.988313673002589,0.0,0.0,0.0